<?xml version="1.0" encoding="UTF-8"?>

<!-- generated on Sat 01 Nov 2014 07:07:36 PM AST by SUMO gui Version 0.18.0
<?xml version="1.0" encoding="UTF-8"?>

<configuration xmlns:xsi="http://www.w3.org/2001/XMLSchema-instance" xsi:noNamespaceSchemaLocation="http://sumo.sf.net/xsd/sumo-gui.exeConfiguration.xsd">

    <input>
        <net-file value="Kad100.net.xml"/>
        <route-files value="Kad100.rou.xml"/>
    </input>

    <output>
        <tripinfo-output value="Kad100.trips.xml"/>
    </output>

    <traci_server>
        <remote-port value="8833"/>
    </traci_server>

</configuration>
-->

<tripinfos>
    <tripinfo id="2" depart="2.00" departLane="4290738#2_0" departPos="5.10" departSpeed="0.00" departDelay="0.00" arrival="41.00" arrivalLane="4290757#1_1" arrivalPos="103.01" arrivalSpeed="21.67" duration="39.00" routeLength="460.26" waitSteps="0" rerouteNo="0" devices="tripinfo_2" vType="DEFAULT_VEHTYPE" vaporized=""/>
    <tripinfo id="0" depart="0.00" departLane="4290716#7_0" departPos="5.10" departSpeed="0.00" departDelay="0.00" arrival="48.00" arrivalLane="4290738#3_0" arrivalPos="117.30" arrivalSpeed="21.88" duration="48.00" routeLength="738.88" waitSteps="0" rerouteNo="0" devices="tripinfo_0" vType="DEFAULT_VEHTYPE" vaporized=""/>
    <tripinfo id="8" depart="8.00" departLane="-4290741#4_0" departPos="5.10" departSpeed="0.00" departDelay="0.00" arrival="51.00" arrivalLane="4290756#1_1" arrivalPos="80.57" arrivalSpeed="21.06" duration="43.00" routeLength="562.64" waitSteps="0" rerouteNo="0" devices="tripinfo_8" vType="DEFAULT_VEHTYPE" vaporized=""/>
    <tripinfo id="3" depart="3.00" departLane="4483560#2_0" departPos="5.10" departSpeed="0.00" departDelay="0.00" arrival="54.00" arrivalLane="4290717#7_0" arrivalPos="69.90" arrivalSpeed="20.92" duration="51.00" routeLength="807.17" waitSteps="0" rerouteNo="0" devices="tripinfo_3" vType="DEFAULT_VEHTYPE" vaporized=""/>
    <tripinfo id="11" depart="11.00" departLane="4290716#5_0" departPos="5.10" departSpeed="0.00" departDelay="0.00" arrival="56.00" arrivalLane="-4290717#0_1" arrivalPos="59.49" arrivalSpeed="21.98" duration="45.00" routeLength="622.71" waitSteps="0" rerouteNo="0" devices="tripinfo_11" vType="DEFAULT_VEHTYPE" vaporized=""/>
    <tripinfo id="9" depart="9.00" departLane="4290739#8_0" departPos="5.10" departSpeed="0.00" departDelay="0.00" arrival="57.00" arrivalLane="-4290720#1_1" arrivalPos="19.77" arrivalSpeed="12.61" duration="48.00" routeLength="591.06" waitSteps="0" rerouteNo="0" devices="tripinfo_9" vType="DEFAULT_VEHTYPE" vaporized=""/>
    <tripinfo id="21" depart="21.00" departLane="-4290743#0_0" departPos="5.10" departSpeed="0.00" departDelay="0.00" arrival="57.00" arrivalLane="4290715#9_1" arrivalPos="35.96" arrivalSpeed="13.07" duration="36.00" routeLength="537.47" waitSteps="0" rerouteNo="0" devices="tripinfo_21" vType="DEFAULT_VEHTYPE" vaporized=""/>
    <tripinfo id="23" depart="23.00" departLane="-4290746#1_0" departPos="5.10" departSpeed="0.00" departDelay="0.00" arrival="61.00" arrivalLane="-4290743#4_1" arrivalPos="33.72" arrivalSpeed="11.92" duration="38.00" routeLength="390.08" waitSteps="0" rerouteNo="0" devices="tripinfo_23" vType="DEFAULT_VEHTYPE" vaporized=""/>
    <tripinfo id="35" depart="35.00" departLane="-4290747#1_0" departPos="5.10" departSpeed="0.00" departDelay="0.00" arrival="67.00" arrivalLane="-4290748#1_1" arrivalPos="54.61" arrivalSpeed="21.51" duration="32.00" routeLength="445.50" waitSteps="0" rerouteNo="0" devices="tripinfo_35" vType="DEFAULT_VEHTYPE" vaporized=""/>
    <tripinfo id="33" depart="33.00" departLane="-4290728#3_0" departPos="5.10" departSpeed="0.00" departDelay="0.00" arrival="69.00" arrivalLane="4290739#4_1" arrivalPos="22.23" arrivalSpeed="11.67" duration="36.00" routeLength="409.62" waitSteps="0" rerouteNo="0" devices="tripinfo_33" vType="DEFAULT_VEHTYPE" vaporized=""/>
    <tripinfo id="13" depart="13.00" departLane="4483622#3_0" departPos="5.10" departSpeed="0.00" departDelay="0.00" arrival="76.00" arrivalLane="4290748#6_0" arrivalPos="41.66" arrivalSpeed="21.90" duration="63.00" routeLength="982.29" waitSteps="0" rerouteNo="0" devices="tripinfo_13" vType="DEFAULT_VEHTYPE" vaporized=""/>
    <tripinfo id="17" depart="17.00" departLane="4290726#0_0" departPos="5.10" departSpeed="0.00" departDelay="0.00" arrival="76.00" arrivalLane="4483619#5_3" arrivalPos="122.59" arrivalSpeed="21.91" duration="59.00" routeLength="815.44" waitSteps="0" rerouteNo="0" devices="tripinfo_17" vType="DEFAULT_VEHTYPE" vaporized=""/>
    <tripinfo id="10" depart="10.00" departLane="4290741#9_0" departPos="5.10" departSpeed="0.00" departDelay="0.00" arrival="78.00" arrivalLane="-4290717#4_1" arrivalPos="71.60" arrivalSpeed="21.38" duration="68.00" routeLength="911.47" waitSteps="0" rerouteNo="0" devices="tripinfo_10" vType="DEFAULT_VEHTYPE" vaporized=""/>
    <tripinfo id="1" depart="1.00" departLane="4290741#8_0" departPos="5.10" departSpeed="0.00" departDelay="0.00" arrival="84.00" arrivalLane="4483560#2_0" arrivalPos="113.00" arrivalSpeed="21.90" duration="83.00" routeLength="1286.18" waitSteps="0" rerouteNo="0" devices="tripinfo_1" vType="DEFAULT_VEHTYPE" vaporized=""/>
    <tripinfo id="4" depart="4.00" departLane="4290751#2_0" departPos="5.10" departSpeed="0.00" departDelay="0.00" arrival="85.00" arrivalLane="-4290715#4_1" arrivalPos="104.23" arrivalSpeed="20.47" duration="81.00" routeLength="886.58" waitSteps="0" rerouteNo="0" devices="tripinfo_4" vType="DEFAULT_VEHTYPE" vaporized=""/>
    <tripinfo id="5" depart="5.00" departLane="4290688#1_0" departPos="5.10" departSpeed="0.00" departDelay="0.00" arrival="90.00" arrivalLane="-4290739#2_1" arrivalPos="51.59" arrivalSpeed="21.43" duration="85.00" routeLength="1348.81" waitSteps="0" rerouteNo="0" devices="tripinfo_5" vType="DEFAULT_VEHTYPE" vaporized=""/>
    <tripinfo id="42" depart="42.00" departLane="-4290746#2_0" departPos="5.10" departSpeed="0.00" departDelay="0.00" arrival="95.00" arrivalLane="4290758#0_1" arrivalPos="56.00" arrivalSpeed="20.98" duration="53.00" routeLength="593.77" waitSteps="0" rerouteNo="0" devices="tripinfo_42" vType="DEFAULT_VEHTYPE" vaporized=""/>
    <tripinfo id="18" depart="18.00" departLane="4290750_0" departPos="5.10" departSpeed="0.00" departDelay="0.00" arrival="95.00" arrivalLane="-4290742#2_0" arrivalPos="63.44" arrivalSpeed="21.60" duration="77.00" routeLength="824.13" waitSteps="4" rerouteNo="0" devices="tripinfo_18" vType="DEFAULT_VEHTYPE" vaporized=""/>
    <tripinfo id="24" depart="24.00" departLane="4290743#5_0" departPos="5.10" departSpeed="0.00" departDelay="0.00" arrival="95.00" arrivalLane="4290691_1" arrivalPos="74.63" arrivalSpeed="17.23" duration="71.00" routeLength="1207.80" waitSteps="0" rerouteNo="0" devices="tripinfo_24" vType="DEFAULT_VEHTYPE" vaporized=""/>
    <tripinfo id="67" depart="67.00" departLane="4290741#4_0" departPos="5.10" departSpeed="0.00" departDelay="0.00" arrival="98.00" arrivalLane="4290741#0_1" arrivalPos="47.81" arrivalSpeed="13.11" duration="31.00" routeLength="345.19" waitSteps="0" rerouteNo="0" devices="tripinfo_67" vType="DEFAULT_VEHTYPE" vaporized=""/>
    <tripinfo id="20" depart="20.00" departLane="-4290717#7_0" departPos="5.10" departSpeed="0.00" departDelay="0.00" arrival="98.00" arrivalLane="-4290709#9_1" arrivalPos="41.81" arrivalSpeed="15.65" duration="78.00" routeLength="1141.99" waitSteps="0" rerouteNo="0" devices="tripinfo_20" vType="DEFAULT_VEHTYPE" vaporized=""/>
    <tripinfo id="58" depart="61.00" departLane="-4483640#0_0" departPos="5.10" departSpeed="0.00" departDelay="3.00" arrival="100.00" arrivalLane="4483643_1" arrivalPos="258.32" arrivalSpeed="21.41" duration="39.00" routeLength="567.10" waitSteps="0" rerouteNo="0" devices="tripinfo_58" vType="DEFAULT_VEHTYPE" vaporized=""/>
    <tripinfo id="32" depart="32.00" departLane="-4290724_0" departPos="5.10" departSpeed="0.00" departDelay="0.00" arrival="101.00" arrivalLane="4483619#0_0" arrivalPos="160.04" arrivalSpeed="21.53" duration="69.00" routeLength="1090.63" waitSteps="0" rerouteNo="0" devices="tripinfo_32" vType="DEFAULT_VEHTYPE" vaporized=""/>
    <tripinfo id="14" depart="14.00" departLane="-4290741#8_0" departPos="5.10" departSpeed="0.00" departDelay="0.00" arrival="102.00" arrivalLane="4483619#3_3" arrivalPos="89.93" arrivalSpeed="21.29" duration="88.00" routeLength="834.54" waitSteps="14" rerouteNo="0" devices="tripinfo_14" vType="DEFAULT_VEHTYPE" vaporized=""/>
    <tripinfo id="26" depart="26.00" departLane="4290728#4_0" departPos="5.10" departSpeed="0.00" departDelay="0.00" arrival="106.00" arrivalLane="-4290709#6_1" arrivalPos="132.04" arrivalSpeed="21.83" duration="80.00" routeLength="1050.51" waitSteps="0" rerouteNo="0" devices="tripinfo_26" vType="DEFAULT_VEHTYPE" vaporized=""/>
    <tripinfo id="54" depart="54.00" departLane="4290737_0" departPos="5.10" departSpeed="0.00" departDelay="0.00" arrival="108.00" arrivalLane="4290717#0_1" arrivalPos="59.49" arrivalSpeed="16.62" duration="54.00" routeLength="518.31" waitSteps="5" rerouteNo="0" devices="tripinfo_54" vType="DEFAULT_VEHTYPE" vaporized=""/>
    <tripinfo id="51" depart="51.00" departLane="-4483640#1_0" departPos="5.10" departSpeed="0.00" departDelay="0.00" arrival="109.00" arrivalLane="-4290759#0_0" arrivalPos="50.85" arrivalSpeed="16.53" duration="58.00" routeLength="900.22" waitSteps="0" rerouteNo="0" devices="tripinfo_51" vType="DEFAULT_VEHTYPE" vaporized=""/>
    <tripinfo id="28" depart="28.00" departLane="4290739#11_0" departPos="5.10" departSpeed="0.00" departDelay="0.00" arrival="110.00" arrivalLane="4290746#1_0" arrivalPos="113.27" arrivalSpeed="21.12" duration="82.00" routeLength="1122.33" waitSteps="1" rerouteNo="0" devices="tripinfo_28" vType="DEFAULT_VEHTYPE" vaporized=""/>
    <tripinfo id="16" depart="16.00" departLane="-4290728#6_0" departPos="5.10" departSpeed="0.00" departDelay="0.00" arrival="111.00" arrivalLane="4483560#1_0" arrivalPos="69.15" arrivalSpeed="17.44" duration="95.00" routeLength="1230.81" waitSteps="0" rerouteNo="0" devices="tripinfo_16" vType="DEFAULT_VEHTYPE" vaporized=""/>
    <tripinfo id="31" depart="31.00" departLane="-4290689#1_0" departPos="5.10" departSpeed="0.00" departDelay="0.00" arrival="112.00" arrivalLane="-4290709#2_1" arrivalPos="86.04" arrivalSpeed="19.73" duration="81.00" routeLength="1292.33" waitSteps="0" rerouteNo="0" devices="tripinfo_31" vType="DEFAULT_VEHTYPE" vaporized=""/>
    <tripinfo id="7" depart="7.00" departLane="-4290690#0_0" departPos="5.10" departSpeed="0.00" departDelay="0.00" arrival="113.00" arrivalLane="-4290733_1" arrivalPos="93.00" arrivalSpeed="18.27" duration="106.00" routeLength="1634.55" waitSteps="0" rerouteNo="0" devices="tripinfo_7" vType="DEFAULT_VEHTYPE" vaporized=""/>
    <tripinfo id="55" depart="55.00" departLane="4290741#5_0" departPos="5.10" departSpeed="0.00" departDelay="0.00" arrival="116.00" arrivalLane="-4290715#13_1" arrivalPos="100.30" arrivalSpeed="21.37" duration="61.00" routeLength="656.14" waitSteps="0" rerouteNo="0" devices="tripinfo_55" vType="DEFAULT_VEHTYPE" vaporized=""/>
    <tripinfo id="45" depart="45.00" departLane="-4290712#1_0" departPos="5.10" departSpeed="0.00" departDelay="0.00" arrival="116.00" arrivalLane="-4290717#9_1" arrivalPos="91.10" arrivalSpeed="21.04" duration="71.00" routeLength="1165.96" waitSteps="0" rerouteNo="0" devices="tripinfo_45" vType="DEFAULT_VEHTYPE" vaporized=""/>
    <tripinfo id="39" depart="39.00" departLane="-4290709#0_0" departPos="5.10" departSpeed="0.00" departDelay="0.00" arrival="116.00" arrivalLane="4483581_1" arrivalPos="101.61" arrivalSpeed="13.69" duration="77.00" routeLength="1047.04" waitSteps="0" rerouteNo="0" devices="tripinfo_39" vType="DEFAULT_VEHTYPE" vaporized=""/>
    <tripinfo id="37" depart="37.00" departLane="-4290715#13_0" departPos="5.10" departSpeed="0.00" departDelay="0.00" arrival="116.00" arrivalLane="4290739#11_1" arrivalPos="235.69" arrivalSpeed="21.07" duration="79.00" routeLength="1006.88" waitSteps="0" rerouteNo="0" devices="tripinfo_37" vType="DEFAULT_VEHTYPE" vaporized=""/>
    <tripinfo id="19" depart="19.00" departLane="-4290748#4_0" departPos="5.10" departSpeed="0.00" departDelay="0.00" arrival="117.00" arrivalLane="-4290721#2_1" arrivalPos="74.63" arrivalSpeed="17.76" duration="98.00" routeLength="884.00" waitSteps="0" rerouteNo="0" devices="tripinfo_19" vType="DEFAULT_VEHTYPE" vaporized=""/>
    <tripinfo id="79" depart="79.00" departLane="4290717#4_0" departPos="5.10" departSpeed="0.00" departDelay="0.00" arrival="118.00" arrivalLane="4290738#1_0" arrivalPos="48.16" arrivalSpeed="21.47" duration="39.00" routeLength="531.68" waitSteps="0" rerouteNo="0" devices="tripinfo_79" vType="DEFAULT_VEHTYPE" vaporized=""/>
    <tripinfo id="57" depart="57.00" departLane="4290746#1_0" departPos="5.10" departSpeed="0.00" departDelay="0.00" arrival="120.00" arrivalLane="-4290742#0_1" arrivalPos="63.09" arrivalSpeed="20.98" duration="63.00" routeLength="910.14" waitSteps="0" rerouteNo="0" devices="tripinfo_57" vType="DEFAULT_VEHTYPE" vaporized=""/>
    <tripinfo id="36" depart="36.00" departLane="4290709#11_0" departPos="5.10" departSpeed="0.00" departDelay="0.00" arrival="120.00" arrivalLane="4290741#0_1" arrivalPos="47.81" arrivalSpeed="15.09" duration="84.00" routeLength="1337.40" waitSteps="0" rerouteNo="0" devices="tripinfo_36" vType="DEFAULT_VEHTYPE" vaporized=""/>
    <tripinfo id="12" depart="12.00" departLane="-4290682_0" departPos="5.10" departSpeed="0.00" departDelay="0.00" arrival="120.00" arrivalLane="4290748#5_1" arrivalPos="57.45" arrivalSpeed="15.92" duration="108.00" routeLength="1623.01" waitSteps="0" rerouteNo="0" devices="tripinfo_12" vType="DEFAULT_VEHTYPE" vaporized=""/>
    <tripinfo id="44" depart="44.00" departLane="-4290744#0_0" departPos="5.10" departSpeed="0.00" departDelay="0.00" arrival="120.00" arrivalLane="-4290723#2_0" arrivalPos="112.50" arrivalSpeed="21.80" duration="76.00" routeLength="989.80" waitSteps="0" rerouteNo="0" devices="tripinfo_44" vType="DEFAULT_VEHTYPE" vaporized=""/>
    <tripinfo id="86" depart="86.00" departLane="4290690#1_0" departPos="5.10" departSpeed="0.00" departDelay="0.00" arrival="122.00" arrivalLane="4290726#0_0" arrivalPos="78.30" arrivalSpeed="21.50" duration="36.00" routeLength="655.59" waitSteps="0" rerouteNo="0" devices="tripinfo_86" vType="DEFAULT_VEHTYPE" vaporized=""/>
    <tripinfo id="22" depart="22.00" departLane="-4290688#0_0" departPos="5.10" departSpeed="0.00" departDelay="0.00" arrival="122.00" arrivalLane="4290722#1_0" arrivalPos="112.23" arrivalSpeed="21.46" duration="100.00" routeLength="1520.34" waitSteps="0" rerouteNo="0" devices="tripinfo_22" vType="DEFAULT_VEHTYPE" vaporized=""/>
    <tripinfo id="52" depart="52.00" departLane="-4290709#6_0" departPos="5.10" departSpeed="0.00" departDelay="0.00" arrival="122.00" arrivalLane="4290756#1_0" arrivalPos="80.57" arrivalSpeed="19.20" duration="70.00" routeLength="846.87" waitSteps="1" rerouteNo="0" devices="tripinfo_52" vType="DEFAULT_VEHTYPE" vaporized=""/>
    <tripinfo id="27" depart="27.00" departLane="4483621#1_0" departPos="5.10" departSpeed="0.00" departDelay="0.00" arrival="122.00" arrivalLane="-4290699#0_0" arrivalPos="193.78" arrivalSpeed="22.05" duration="95.00" routeLength="1247.63" waitSteps="4" rerouteNo="0" devices="tripinfo_27" vType="DEFAULT_VEHTYPE" vaporized=""/>
    <tripinfo id="72" depart="72.00" departLane="4290726#0_0" departPos="5.10" departSpeed="0.00" departDelay="0.00" arrival="124.00" arrivalLane="-4290742#0_1" arrivalPos="63.09" arrivalSpeed="15.56" duration="52.00" routeLength="553.63" waitSteps="0" rerouteNo="0" devices="tripinfo_72" vType="DEFAULT_VEHTYPE" vaporized=""/>
    <tripinfo id="62" depart="62.00" departLane="-4290741#9_0" departPos="5.10" departSpeed="0.00" departDelay="0.00" arrival="126.00" arrivalLane="-4290752#0_1" arrivalPos="89.83" arrivalSpeed="19.14" duration="64.00" routeLength="775.95" waitSteps="0" rerouteNo="0" devices="tripinfo_62" vType="DEFAULT_VEHTYPE" vaporized=""/>
    <tripinfo id="48" depart="48.00" departLane="4483628#0_0" departPos="5.10" departSpeed="0.00" departDelay="0.00" arrival="126.00" arrivalLane="4290709#5_1" arrivalPos="232.58" arrivalSpeed="21.55" duration="78.00" routeLength="980.43" waitSteps="1" rerouteNo="0" devices="tripinfo_48" vType="DEFAULT_VEHTYPE" vaporized=""/>
    <tripinfo id="68" depart="68.00" departLane="4290726#1_0" departPos="5.10" departSpeed="0.00" departDelay="0.00" arrival="128.00" arrivalLane="4290720#1_0" arrivalPos="19.77" arrivalSpeed="20.57" duration="60.00" routeLength="696.42" waitSteps="0" rerouteNo="0" devices="tripinfo_68" vType="DEFAULT_VEHTYPE" vaporized=""/>
    <tripinfo id="47" depart="48.00" departLane="-4290721#0_0" departPos="5.10" departSpeed="0.00" departDelay="1.00" arrival="129.00" arrivalLane="-4290709#3_0" arrivalPos="91.94" arrivalSpeed="19.73" duration="81.00" routeLength="1127.98" waitSteps="0" rerouteNo="0" devices="tripinfo_47" vType="DEFAULT_VEHTYPE" vaporized=""/>
    <tripinfo id="81" depart="81.00" departLane="4290746#1_0" departPos="5.10" departSpeed="0.00" departDelay="0.00" arrival="132.00" arrivalLane="4290748#5_1" arrivalPos="57.45" arrivalSpeed="14.91" duration="51.00" routeLength="521.65" waitSteps="0" rerouteNo="0" devices="tripinfo_81" vType="DEFAULT_VEHTYPE" vaporized=""/>
    <tripinfo id="73" depart="73.00" departLane="4483581_0" departPos="5.10" departSpeed="0.00" departDelay="0.00" arrival="133.00" arrivalLane="4290717#7_0" arrivalPos="69.90" arrivalSpeed="22.04" duration="60.00" routeLength="724.10" waitSteps="7" rerouteNo="0" devices="tripinfo_73" vType="DEFAULT_VEHTYPE" vaporized=""/>
    <tripinfo id="69" depart="69.00" departLane="4290739#5_0" departPos="5.10" departSpeed="0.00" departDelay="0.00" arrival="133.00" arrivalLane="-4290748#5_1" arrivalPos="57.45" arrivalSpeed="16.17" duration="64.00" routeLength="758.70" waitSteps="0" rerouteNo="0" devices="tripinfo_69" vType="DEFAULT_VEHTYPE" vaporized=""/>
    <tripinfo id="46" depart="46.00" departLane="4290725_0" departPos="5.10" departSpeed="0.00" departDelay="0.00" arrival="133.00" arrivalLane="4483641_1" arrivalPos="252.74" arrivalSpeed="12.59" duration="87.00" routeLength="1070.24" waitSteps="0" rerouteNo="0" devices="tripinfo_46" vType="DEFAULT_VEHTYPE" vaporized=""/>
    <tripinfo id="50" depart="50.00" departLane="4290715#5_0" departPos="5.10" departSpeed="0.00" departDelay="0.00" arrival="135.00" arrivalLane="4290744#2_1" arrivalPos="51.98" arrivalSpeed="11.87" duration="85.00" routeLength="741.45" waitSteps="1" rerouteNo="0" devices="tripinfo_50" vType="DEFAULT_VEHTYPE" vaporized=""/>
    <tripinfo id="100" depart="100.00" departLane="-4290702_0" departPos="5.10" departSpeed="0.00" departDelay="0.00" arrival="135.00" arrivalLane="4290688#0_1" arrivalPos="156.14" arrivalSpeed="21.34" duration="35.00" routeLength="506.14" waitSteps="0" rerouteNo="0" devices="tripinfo_100" vType="DEFAULT_VEHTYPE" vaporized=""/>
    <tripinfo id="30" depart="30.00" departLane="-4290748#6_0" departPos="5.10" departSpeed="0.00" departDelay="0.00" arrival="137.00" arrivalLane="4290715#1_1" arrivalPos="117.51" arrivalSpeed="21.25" duration="107.00" routeLength="1229.19" waitSteps="0" rerouteNo="0" devices="tripinfo_30" vType="DEFAULT_VEHTYPE" vaporized=""/>
    <tripinfo id="56" depart="56.00" departLane="-4483560#1_0" departPos="5.10" departSpeed="0.00" departDelay="0.00" arrival="138.00" arrivalLane="-4290717#9_1" arrivalPos="91.10" arrivalSpeed="19.07" duration="82.00" routeLength="1127.67" waitSteps="0" rerouteNo="0" devices="tripinfo_56" vType="DEFAULT_VEHTYPE" vaporized=""/>
    <tripinfo id="38" depart="38.00" departLane="4290741#9_0" departPos="5.10" departSpeed="0.00" departDelay="0.00" arrival="139.00" arrivalLane="4290748#1_0" arrivalPos="54.61" arrivalSpeed="15.78" duration="101.00" routeLength="1084.46" waitSteps="0" rerouteNo="0" devices="tripinfo_38" vType="DEFAULT_VEHTYPE" vaporized=""/>
    <tripinfo id="78" depart="78.00" departLane="4290741#9_0" departPos="5.10" departSpeed="0.00" departDelay="0.00" arrival="140.00" arrivalLane="-4290747#2_1" arrivalPos="65.02" arrivalSpeed="17.58" duration="62.00" routeLength="723.71" waitSteps="0" rerouteNo="0" devices="tripinfo_78" vType="DEFAULT_VEHTYPE" vaporized=""/>
    <tripinfo id="84" depart="84.00" departLane="4290709#3_0" departPos="5.10" departSpeed="0.00" departDelay="0.00" arrival="140.00" arrivalLane="-4290721#2_1" arrivalPos="74.63" arrivalSpeed="19.38" duration="56.00" routeLength="730.85" waitSteps="0" rerouteNo="0" devices="tripinfo_84" vType="DEFAULT_VEHTYPE" vaporized=""/>
    <tripinfo id="70" depart="70.00" departLane="4290728#3_0" departPos="5.10" departSpeed="0.00" departDelay="0.00" arrival="144.00" arrivalLane="-4290741#4_1" arrivalPos="47.29" arrivalSpeed="16.39" duration="74.00" routeLength="624.38" waitSteps="11" rerouteNo="0" devices="tripinfo_70" vType="DEFAULT_VEHTYPE" vaporized=""/>
    <tripinfo id="91" depart="91.00" departLane="4290740#1_0" departPos="5.10" departSpeed="0.00" departDelay="0.00" arrival="144.00" arrivalLane="4290717#2_1" arrivalPos="73.40" arrivalSpeed="16.83" duration="53.00" routeLength="631.91" waitSteps="0" rerouteNo="0" devices="tripinfo_91" vType="DEFAULT_VEHTYPE" vaporized=""/>
    <tripinfo id="80" depart="80.00" departLane="4290744#3_0" departPos="5.10" departSpeed="0.00" departDelay="0.00" arrival="144.00" arrivalLane="-4290747#3_1" arrivalPos="121.41" arrivalSpeed="21.52" duration="64.00" routeLength="593.01" waitSteps="9" rerouteNo="0" devices="tripinfo_80" vType="DEFAULT_VEHTYPE" vaporized=""/>
    <tripinfo id="93" depart="98.00" departLane="-4290721#0_0" departPos="5.10" departSpeed="0.00" departDelay="5.00" arrival="148.00" arrivalLane="-4483621#0_1" arrivalPos="64.30" arrivalSpeed="12.85" duration="50.00" routeLength="624.52" waitSteps="0" rerouteNo="0" devices="tripinfo_93" vType="DEFAULT_VEHTYPE" vaporized=""/>
    <tripinfo id="109" depart="109.00" departLane="-4290746#2_0" departPos="5.10" departSpeed="0.00" departDelay="0.00" arrival="149.00" arrivalLane="4290715#10_1" arrivalPos="77.61" arrivalSpeed="18.89" duration="40.00" routeLength="487.60" waitSteps="0" rerouteNo="0" devices="tripinfo_109" vType="DEFAULT_VEHTYPE" vaporized=""/>
    <tripinfo id="88" depart="88.00" departLane="-4290722#1_0" departPos="5.10" departSpeed="0.00" departDelay="0.00" arrival="150.00" arrivalLane="4290741#2_0" arrivalPos="50.85" arrivalSpeed="14.16" duration="62.00" routeLength="629.71" waitSteps="0" rerouteNo="0" devices="tripinfo_88" vType="DEFAULT_VEHTYPE" vaporized=""/>
    <tripinfo id="15" depart="15.00" departLane="4290709#7_0" departPos="5.10" departSpeed="0.00" departDelay="0.00" arrival="150.00" arrivalLane="4290722#1_1" arrivalPos="112.23" arrivalSpeed="20.72" duration="135.00" routeLength="1196.68" waitSteps="8" rerouteNo="0" devices="tripinfo_15" vType="DEFAULT_VEHTYPE" vaporized=""/>
    <tripinfo id="6" depart="6.00" departLane="4290709#9_0" departPos="5.10" departSpeed="0.00" departDelay="0.00" arrival="150.00" arrivalLane="4290715#0_1" arrivalPos="209.02" arrivalSpeed="21.52" duration="144.00" routeLength="1725.39" waitSteps="11" rerouteNo="0" devices="tripinfo_6" vType="DEFAULT_VEHTYPE" vaporized=""/>
    <tripinfo id="111" depart="111.00" departLane="-4290758#1_0" departPos="5.10" departSpeed="0.00" departDelay="0.00" arrival="154.00" arrivalLane="4290743#2_1" arrivalPos="57.27" arrivalSpeed="16.75" duration="43.00" routeLength="379.16" waitSteps="0" rerouteNo="0" devices="tripinfo_111" vType="DEFAULT_VEHTYPE" vaporized=""/>
    <tripinfo id="87" depart="87.00" departLane="4290732_0" departPos="5.10" departSpeed="0.00" departDelay="0.00" arrival="155.00" arrivalLane="4290736_1" arrivalPos="82.99" arrivalSpeed="17.33" duration="68.00" routeLength="904.34" waitSteps="0" rerouteNo="0" devices="tripinfo_87" vType="DEFAULT_VEHTYPE" vaporized=""/>
    <tripinfo id="118" depart="118.00" departLane="-4290717#5_0" departPos="5.10" departSpeed="0.00" departDelay="0.00" arrival="157.00" arrivalLane="4290716#9_1" arrivalPos="64.02" arrivalSpeed="21.23" duration="39.00" routeLength="525.00" waitSteps="0" rerouteNo="0" devices="tripinfo_118" vType="DEFAULT_VEHTYPE" vaporized=""/>
    <tripinfo id="75" depart="75.00" departLane="4290710#0_0" departPos="5.10" departSpeed="0.00" departDelay="0.00" arrival="157.00" arrivalLane="-4290739#4_1" arrivalPos="22.23" arrivalSpeed="10.52" duration="82.00" routeLength="889.60" waitSteps="0" rerouteNo="0" devices="tripinfo_75" vType="DEFAULT_VEHTYPE" vaporized=""/>
    <tripinfo id="49" depart="49.00" departLane="-4290752#1_0" departPos="5.10" departSpeed="0.00" departDelay="0.00" arrival="157.00" arrivalLane="-4290739#0_1" arrivalPos="49.61" arrivalSpeed="10.71" duration="108.00" routeLength="954.58" waitSteps="11" rerouteNo="0" devices="tripinfo_49" vType="DEFAULT_VEHTYPE" vaporized=""/>
    <tripinfo id="82" depart="82.00" departLane="4290725_0" departPos="5.10" departSpeed="0.00" departDelay="0.00" arrival="158.00" arrivalLane="4483622#1_1" arrivalPos="46.63" arrivalSpeed="22.05" duration="76.00" routeLength="875.58" waitSteps="0" rerouteNo="0" devices="tripinfo_82" vType="DEFAULT_VEHTYPE" vaporized=""/>
    <tripinfo id="113" depart="113.00" departLane="-4290717#5_0" departPos="5.10" departSpeed="0.00" departDelay="0.00" arrival="158.00" arrivalLane="4290715#6_1" arrivalPos="70.51" arrivalSpeed="18.00" duration="45.00" routeLength="472.17" waitSteps="0" rerouteNo="0" devices="tripinfo_113" vType="DEFAULT_VEHTYPE" vaporized=""/>
    <tripinfo id="76" depart="76.00" departLane="4290721#2_0" departPos="5.10" departSpeed="0.00" departDelay="0.00" arrival="159.00" arrivalLane="4290682_0" arrivalPos="109.52" arrivalSpeed="20.96" duration="83.00" routeLength="1169.19" waitSteps="0" rerouteNo="0" devices="tripinfo_76" vType="DEFAULT_VEHTYPE" vaporized=""/>
    <tripinfo id="119" depart="119.00" departLane="4290749#4_0" departPos="5.10" departSpeed="0.00" departDelay="0.00" arrival="159.00" arrivalLane="-4290749#0_1" arrivalPos="97.27" arrivalSpeed="20.27" duration="40.00" routeLength="457.23" waitSteps="0" rerouteNo="0" devices="tripinfo_119" vType="DEFAULT_VEHTYPE" vaporized=""/>
    <tripinfo id="108" depart="108.00" departLane="-4290715#0_0" departPos="5.10" departSpeed="0.00" departDelay="0.00" arrival="160.00" arrivalLane="4290710#0_0" arrivalPos="68.28" arrivalSpeed="21.95" duration="52.00" routeLength="693.29" waitSteps="0" rerouteNo="0" devices="tripinfo_108" vType="DEFAULT_VEHTYPE" vaporized=""/>
    <tripinfo id="25" depart="25.00" departLane="-4290744#0_0" departPos="5.10" departSpeed="0.00" departDelay="0.00" arrival="160.00" arrivalLane="4290691_1" arrivalPos="74.63" arrivalSpeed="17.19" duration="135.00" routeLength="1788.48" waitSteps="1" rerouteNo="0" devices="tripinfo_25" vType="DEFAULT_VEHTYPE" vaporized=""/>
    <tripinfo id="102" depart="102.00" departLane="4290715#3_0" departPos="5.10" departSpeed="0.00" departDelay="0.00" arrival="161.00" arrivalLane="-4290739#0_1" arrivalPos="49.61" arrivalSpeed="22.20" duration="59.00" routeLength="690.39" waitSteps="0" rerouteNo="0" devices="tripinfo_102" vType="DEFAULT_VEHTYPE" vaporized=""/>
    <tripinfo id="115" depart="115.00" departLane="-4290748#0_0" departPos="5.10" departSpeed="0.00" departDelay="0.00" arrival="162.00" arrivalLane="4290750_0" arrivalPos="99.16" arrivalSpeed="21.02" duration="47.00" routeLength="890.37" waitSteps="0" rerouteNo="0" devices="tripinfo_115" vType="DEFAULT_VEHTYPE" vaporized=""/>
    <tripinfo id="134" depart="136.00" departLane="-4290739#2_0" departPos="5.10" departSpeed="0.00" departDelay="2.00" arrival="163.00" arrivalLane="-4290740#1_0" arrivalPos="67.39" arrivalSpeed="21.26" duration="27.00" routeLength="350.34" waitSteps="0" rerouteNo="0" devices="tripinfo_134" vType="DEFAULT_VEHTYPE" vaporized=""/>
    <tripinfo id="95" depart="95.00" departLane="4290724_0" departPos="5.10" departSpeed="0.00" departDelay="0.00" arrival="163.00" arrivalLane="4290717#0_1" arrivalPos="59.49" arrivalSpeed="16.02" duration="68.00" routeLength="801.31" waitSteps="0" rerouteNo="0" devices="tripinfo_95" vType="DEFAULT_VEHTYPE" vaporized=""/>
    <tripinfo id="71" depart="71.00" departLane="4290699#1_0" departPos="5.10" departSpeed="0.00" departDelay="0.00" arrival="165.00" arrivalLane="4290739#9_1" arrivalPos="45.34" arrivalSpeed="14.97" duration="94.00" routeLength="1236.49" waitSteps="0" rerouteNo="0" devices="tripinfo_71" vType="DEFAULT_VEHTYPE" vaporized=""/>
    <tripinfo id="34" depart="34.00" departLane="4290759#0_0" departPos="5.10" departSpeed="0.00" departDelay="0.00" arrival="165.00" arrivalLane="4483560#2_0" arrivalPos="113.00" arrivalSpeed="21.05" duration="131.00" routeLength="1580.53" waitSteps="6" rerouteNo="0" devices="tripinfo_34" vType="DEFAULT_VEHTYPE" vaporized=""/>
    <tripinfo id="114" depart="114.00" departLane="4290713#0_0" departPos="5.10" departSpeed="0.00" departDelay="0.00" arrival="166.00" arrivalLane="4483619#1_0" arrivalPos="238.17" arrivalSpeed="21.92" duration="52.00" routeLength="739.45" waitSteps="0" rerouteNo="0" devices="tripinfo_114" vType="DEFAULT_VEHTYPE" vaporized=""/>
    <tripinfo id="29" depart="29.00" departLane="-4290691_0" departPos="5.10" departSpeed="0.00" departDelay="0.00" arrival="168.00" arrivalLane="4290741#5_1" arrivalPos="75.84" arrivalSpeed="17.76" duration="139.00" routeLength="1450.46" waitSteps="18" rerouteNo="0" devices="tripinfo_29" vType="DEFAULT_VEHTYPE" vaporized=""/>
    <tripinfo id="41" depart="41.00" departLane="4290716#2_0" departPos="5.10" departSpeed="0.00" departDelay="0.00" arrival="169.00" arrivalLane="4290757#0_1" arrivalPos="61.42" arrivalSpeed="21.16" duration="128.00" routeLength="1321.53" waitSteps="3" rerouteNo="0" devices="tripinfo_41" vType="DEFAULT_VEHTYPE" vaporized=""/>